s 0.003091411 _0_ RTR  --- 0 message 32 [0 0 0 0] ------- [0:255 -1:255 32 0] 
s 0.003116411 _0_ MAC  --- 0 message 60 [0 ffffffff 0 0] ------- [0:255 -1:255 32 0] 
r 0.003324647 _18_ MAC  --- 0 message 32 [0 ffffffff 0 0] ------- [0:255 -1:255 32 0] 
r 0.003349647 _18_ RTR  --- 0 message 32 [0 ffffffff 0 0] ------- [0:255 -1:255 32 0] 
s 0.036031640 _2_ RTR  --- 1 message 32 [0 0 0 0] ------- [2:255 -1:255 32 0] 
s 0.036056640 _2_ MAC  --- 1 message 60 [0 ffffffff 2 0] ------- [2:255 -1:255 32 0] 
r 0.036264699 _16_ MAC  --- 1 message 32 [0 ffffffff 2 0] ------- [2:255 -1:255 32 0] 
r 0.036265111 _15_ MAC  --- 1 message 32 [0 ffffffff 2 0] ------- [2:255 -1:255 32 0] 
r 0.036265250 _4_ MAC  --- 1 message 32 [0 ffffffff 2 0] ------- [2:255 -1:255 32 0] 
r 0.036265536 _5_ MAC  --- 1 message 32 [0 ffffffff 2 0] ------- [2:255 -1:255 32 0] 
r 0.036289699 _16_ RTR  --- 1 message 32 [0 ffffffff 2 0] ------- [2:255 -1:255 32 0] 
r 0.036290111 _15_ RTR  --- 1 message 32 [0 ffffffff 2 0] ------- [2:255 -1:255 32 0] 
r 0.036290250 _4_ RTR  --- 1 message 32 [0 ffffffff 2 0] ------- [2:255 -1:255 32 0] 
r 0.036290536 _5_ RTR  --- 1 message 32 [0 ffffffff 2 0] ------- [2:255 -1:255 32 0] 
s 0.086681100 _13_ RTR  --- 2 message 32 [0 0 0 0] ------- [13:255 -1:255 32 0] 
s 0.086706100 _13_ MAC  --- 2 message 60 [0 ffffffff d 0] ------- [13:255 -1:255 32 0] 
r 0.086914714 _6_ MAC  --- 2 message 32 [0 ffffffff d 0] ------- [13:255 -1:255 32 0] 
r 0.086939714 _6_ RTR  --- 2 message 32 [0 ffffffff d 0] ------- [13:255 -1:255 32 0] 
s 0.185119778 _3_ RTR  --- 3 message 32 [0 0 0 0] ------- [3:255 -1:255 32 0] 
s 0.185144778 _3_ MAC  --- 3 message 60 [0 ffffffff 3 0] ------- [3:255 -1:255 32 0] 
s 0.189398022 _19_ RTR  --- 4 message 32 [0 0 0 0] ------- [19:255 -1:255 32 0] 
s 0.189423022 _19_ MAC  --- 4 message 60 [0 ffffffff 13 0] ------- [19:255 -1:255 32 0] 
r 0.189631022 _20_ MAC  --- 4 message 32 [0 ffffffff 13 0] ------- [19:255 -1:255 32 0] 
r 0.189631022 _21_ MAC  --- 4 message 32 [0 ffffffff 13 0] ------- [19:255 -1:255 32 0] 
r 0.189631022 _22_ MAC  --- 4 message 32 [0 ffffffff 13 0] ------- [19:255 -1:255 32 0] 
r 0.189631022 _23_ MAC  --- 4 message 32 [0 ffffffff 13 0] ------- [19:255 -1:255 32 0] 
r 0.189631022 _24_ MAC  --- 4 message 32 [0 ffffffff 13 0] ------- [19:255 -1:255 32 0] 
r 0.189631022 _25_ MAC  --- 4 message 32 [0 ffffffff 13 0] ------- [19:255 -1:255 32 0] 
r 0.189631022 _26_ MAC  --- 4 message 32 [0 ffffffff 13 0] ------- [19:255 -1:255 32 0] 
r 0.189631022 _27_ MAC  --- 4 message 32 [0 ffffffff 13 0] ------- [19:255 -1:255 32 0] 
r 0.189631022 _28_ MAC  --- 4 message 32 [0 ffffffff 13 0] ------- [19:255 -1:255 32 0] 
r 0.189631022 _29_ MAC  --- 4 message 32 [0 ffffffff 13 0] ------- [19:255 -1:255 32 0] 
r 0.189656022 _20_ RTR  --- 4 message 32 [0 ffffffff 13 0] ------- [19:255 -1:255 32 0] 
r 0.189656022 _21_ RTR  --- 4 message 32 [0 ffffffff 13 0] ------- [19:255 -1:255 32 0] 
r 0.189656022 _22_ RTR  --- 4 message 32 [0 ffffffff 13 0] ------- [19:255 -1:255 32 0] 
r 0.189656022 _23_ RTR  --- 4 message 32 [0 ffffffff 13 0] ------- [19:255 -1:255 32 0] 
r 0.189656022 _24_ RTR  --- 4 message 32 [0 ffffffff 13 0] ------- [19:255 -1:255 32 0] 
r 0.189656022 _25_ RTR  --- 4 message 32 [0 ffffffff 13 0] ------- [19:255 -1:255 32 0] 
r 0.189656022 _26_ RTR  --- 4 message 32 [0 ffffffff 13 0] ------- [19:255 -1:255 32 0] 
r 0.189656022 _27_ RTR  --- 4 message 32 [0 ffffffff 13 0] ------- [19:255 -1:255 32 0] 
r 0.189656022 _28_ RTR  --- 4 message 32 [0 ffffffff 13 0] ------- [19:255 -1:255 32 0] 
r 0.189656022 _29_ RTR  --- 4 message 32 [0 ffffffff 13 0] ------- [19:255 -1:255 32 0] 
s 0.233566771 _15_ RTR  --- 5 message 32 [0 0 0 0] ------- [15:255 -1:255 32 0] 
s 0.233591771 _15_ MAC  --- 5 message 60 [0 ffffffff f 0] ------- [15:255 -1:255 32 0] 
r 0.233800108 _4_ MAC  --- 5 message 32 [0 ffffffff f 0] ------- [15:255 -1:255 32 0] 
r 0.233800241 _2_ MAC  --- 5 message 32 [0 ffffffff f 0] ------- [15:255 -1:255 32 0] 
r 0.233800277 _16_ MAC  --- 5 message 32 [0 ffffffff f 0] ------- [15:255 -1:255 32 0] 
r 0.233800709 _14_ MAC  --- 5 message 32 [0 ffffffff f 0] ------- [15:255 -1:255 32 0] 
r 0.233800709 _9_ MAC  --- 5 message 32 [0 ffffffff f 0] ------- [15:255 -1:255 32 0] 
r 0.233825108 _4_ RTR  --- 5 message 32 [0 ffffffff f 0] ------- [15:255 -1:255 32 0] 
r 0.233825241 _2_ RTR  --- 5 message 32 [0 ffffffff f 0] ------- [15:255 -1:255 32 0] 
r 0.233825277 _16_ RTR  --- 5 message 32 [0 ffffffff f 0] ------- [15:255 -1:255 32 0] 
r 0.233825709 _14_ RTR  --- 5 message 32 [0 ffffffff f 0] ------- [15:255 -1:255 32 0] 
r 0.233825709 _9_ RTR  --- 5 message 32 [0 ffffffff f 0] ------- [15:255 -1:255 32 0] 
s 0.334977052 _12_ RTR  --- 6 message 32 [0 0 0 0] ------- [12:255 -1:255 32 0] 
s 0.335002052 _12_ MAC  --- 6 message 60 [0 ffffffff c 0] ------- [12:255 -1:255 32 0] 
r 0.335210629 _11_ MAC  --- 6 message 32 [0 ffffffff c 0] ------- [12:255 -1:255 32 0] 
r 0.335235629 _11_ RTR  --- 6 message 32 [0 ffffffff c 0] ------- [12:255 -1:255 32 0] 
s 0.355058727 _18_ RTR  --- 7 message 32 [0 0 0 0] ------- [18:255 -1:255 32 0] 
s 0.355083727 _18_ MAC  --- 7 message 60 [0 ffffffff 12 0] ------- [18:255 -1:255 32 0] 
r 0.355291964 _0_ MAC  --- 7 message 32 [0 ffffffff 12 0] ------- [18:255 -1:255 32 0] 
r 0.355316964 _0_ RTR  --- 7 message 32 [0 ffffffff 12 0] ------- [18:255 -1:255 32 0] 
s 0.439867316 _29_ RTR  --- 8 message 32 [0 0 0 0] ------- [29:255 -1:255 32 0] 
s 0.439892316 _29_ MAC  --- 8 message 60 [0 ffffffff 1d 0] ------- [29:255 -1:255 32 0] 
r 0.440100316 _28_ MAC  --- 8 message 32 [0 ffffffff 1d 0] ------- [29:255 -1:255 32 0] 
r 0.440100316 _27_ MAC  --- 8 message 32 [0 ffffffff 1d 0] ------- [29:255 -1:255 32 0] 
r 0.440100316 _26_ MAC  --- 8 message 32 [0 ffffffff 1d 0] ------- [29:255 -1:255 32 0] 
r 0.440100316 _25_ MAC  --- 8 message 32 [0 ffffffff 1d 0] ------- [29:255 -1:255 32 0] 
r 0.440100316 _24_ MAC  --- 8 message 32 [0 ffffffff 1d 0] ------- [29:255 -1:255 32 0] 
r 0.440100316 _23_ MAC  --- 8 message 32 [0 ffffffff 1d 0] ------- [29:255 -1:255 32 0] 
r 0.440100316 _22_ MAC  --- 8 message 32 [0 ffffffff 1d 0] ------- [29:255 -1:255 32 0] 
r 0.440100316 _21_ MAC  --- 8 message 32 [0 ffffffff 1d 0] ------- [29:255 -1:255 32 0] 
r 0.440100316 _20_ MAC  --- 8 message 32 [0 ffffffff 1d 0] ------- [29:255 -1:255 32 0] 
r 0.440100316 _19_ MAC  --- 8 message 32 [0 ffffffff 1d 0] ------- [29:255 -1:255 32 0] 
r 0.440125316 _28_ RTR  --- 8 message 32 [0 ffffffff 1d 0] ------- [29:255 -1:255 32 0] 
r 0.440125316 _27_ RTR  --- 8 message 32 [0 ffffffff 1d 0] ------- [29:255 -1:255 32 0] 
r 0.440125316 _26_ RTR  --- 8 message 32 [0 ffffffff 1d 0] ------- [29:255 -1:255 32 0] 
r 0.440125316 _25_ RTR  --- 8 message 32 [0 ffffffff 1d 0] ------- [29:255 -1:255 32 0] 
r 0.440125316 _24_ RTR  --- 8 message 32 [0 ffffffff 1d 0] ------- [29:255 -1:255 32 0] 
r 0.440125316 _23_ RTR  --- 8 message 32 [0 ffffffff 1d 0] ------- [29:255 -1:255 32 0] 
r 0.440125316 _22_ RTR  --- 8 message 32 [0 ffffffff 1d 0] ------- [29:255 -1:255 32 0] 
r 0.440125316 _21_ RTR  --- 8 message 32 [0 ffffffff 1d 0] ------- [29:255 -1:255 32 0] 
r 0.440125316 _20_ RTR  --- 8 message 32 [0 ffffffff 1d 0] ------- [29:255 -1:255 32 0] 
r 0.440125316 _19_ RTR  --- 8 message 32 [0 ffffffff 1d 0] ------- [29:255 -1:255 32 0] 
s 0.472476674 _8_ RTR  --- 9 message 32 [0 0 0 0] ------- [8:255 -1:255 32 0] 
s 0.472501674 _8_ MAC  --- 9 message 60 [0 ffffffff 8 0] ------- [8:255 -1:255 32 0] 
r 0.472710353 _6_ MAC  --- 9 message 32 [0 ffffffff 8 0] ------- [8:255 -1:255 32 0] 
r 0.472735353 _6_ RTR  --- 9 message 32 [0 ffffffff 8 0] ------- [8:255 -1:255 32 0] 
s 0.525644060 _22_ RTR  --- 10 message 32 [0 0 0 0] ------- [22:255 -1:255 32 0] 
s 0.525669060 _22_ MAC  --- 10 message 60 [0 ffffffff 16 0] ------- [22:255 -1:255 32 0] 
r 0.525877060 _21_ MAC  --- 10 message 32 [0 ffffffff 16 0] ------- [22:255 -1:255 32 0] 
r 0.525877060 _20_ MAC  --- 10 message 32 [0 ffffffff 16 0] ------- [22:255 -1:255 32 0] 
r 0.525877060 _19_ MAC  --- 10 message 32 [0 ffffffff 16 0] ------- [22:255 -1:255 32 0] 
r 0.525877060 _23_ MAC  --- 10 message 32 [0 ffffffff 16 0] ------- [22:255 -1:255 32 0] 
r 0.525877060 _24_ MAC  --- 10 message 32 [0 ffffffff 16 0] ------- [22:255 -1:255 32 0] 
r 0.525877060 _25_ MAC  --- 10 message 32 [0 ffffffff 16 0] ------- [22:255 -1:255 32 0] 
r 0.525877060 _26_ MAC  --- 10 message 32 [0 ffffffff 16 0] ------- [22:255 -1:255 32 0] 
r 0.525877060 _27_ MAC  --- 10 message 32 [0 ffffffff 16 0] ------- [22:255 -1:255 32 0] 
r 0.525877060 _28_ MAC  --- 10 message 32 [0 ffffffff 16 0] ------- [22:255 -1:255 32 0] 
r 0.525877060 _29_ MAC  --- 10 message 32 [0 ffffffff 16 0] ------- [22:255 -1:255 32 0] 
r 0.525902060 _21_ RTR  --- 10 message 32 [0 ffffffff 16 0] ------- [22:255 -1:255 32 0] 
r 0.525902060 _20_ RTR  --- 10 message 32 [0 ffffffff 16 0] ------- [22:255 -1:255 32 0] 
r 0.525902060 _19_ RTR  --- 10 message 32 [0 ffffffff 16 0] ------- [22:255 -1:255 32 0] 
r 0.525902060 _23_ RTR  --- 10 message 32 [0 ffffffff 16 0] ------- [22:255 -1:255 32 0] 
r 0.525902060 _24_ RTR  --- 10 message 32 [0 ffffffff 16 0] ------- [22:255 -1:255 32 0] 
r 0.525902060 _25_ RTR  --- 10 message 32 [0 ffffffff 16 0] ------- [22:255 -1:255 32 0] 
r 0.525902060 _26_ RTR  --- 10 message 32 [0 ffffffff 16 0] ------- [22:255 -1:255 32 0] 
r 0.525902060 _27_ RTR  --- 10 message 32 [0 ffffffff 16 0] ------- [22:255 -1:255 32 0] 
r 0.525902060 _28_ RTR  --- 10 message 32 [0 ffffffff 16 0] ------- [22:255 -1:255 32 0] 
r 0.525902060 _29_ RTR  --- 10 message 32 [0 ffffffff 16 0] ------- [22:255 -1:255 32 0] 
s 0.625107488 _10_ RTR  --- 11 message 32 [0 0 0 0] ------- [10:255 -1:255 32 0] 
s 0.625132488 _10_ MAC  --- 11 message 60 [0 ffffffff a 0] ------- [10:255 -1:255 32 0] 
r 0.625341262 _17_ MAC  --- 11 message 32 [0 ffffffff a 0] ------- [10:255 -1:255 32 0] 
r 0.625366262 _17_ RTR  --- 11 message 32 [0 ffffffff a 0] ------- [10:255 -1:255 32 0] 
s 0.626837112 _6_ RTR  --- 12 message 32 [0 0 0 0] ------- [6:255 -1:255 32 0] 
s 0.626862112 _6_ MAC  --- 12 message 60 [0 ffffffff 6 0] ------- [6:255 -1:255 32 0] 
r 0.627070726 _13_ MAC  --- 12 message 32 [0 ffffffff 6 0] ------- [6:255 -1:255 32 0] 
r 0.627070792 _8_ MAC  --- 12 message 32 [0 ffffffff 6 0] ------- [6:255 -1:255 32 0] 
r 0.627095726 _13_ RTR  --- 12 message 32 [0 ffffffff 6 0] ------- [6:255 -1:255 32 0] 
r 0.627095792 _8_ RTR  --- 12 message 32 [0 ffffffff 6 0] ------- [6:255 -1:255 32 0] 
s 0.706133106 _21_ RTR  --- 13 message 32 [0 0 0 0] ------- [21:255 -1:255 32 0] 
s 0.706158106 _21_ MAC  --- 13 message 60 [0 ffffffff 15 0] ------- [21:255 -1:255 32 0] 
r 0.706366106 _20_ MAC  --- 13 message 32 [0 ffffffff 15 0] ------- [21:255 -1:255 32 0] 
r 0.706366106 _19_ MAC  --- 13 message 32 [0 ffffffff 15 0] ------- [21:255 -1:255 32 0] 
r 0.706366106 _22_ MAC  --- 13 message 32 [0 ffffffff 15 0] ------- [21:255 -1:255 32 0] 
r 0.706366106 _23_ MAC  --- 13 message 32 [0 ffffffff 15 0] ------- [21:255 -1:255 32 0] 
r 0.706366106 _24_ MAC  --- 13 message 32 [0 ffffffff 15 0] ------- [21:255 -1:255 32 0] 
r 0.706366106 _25_ MAC  --- 13 message 32 [0 ffffffff 15 0] ------- [21:255 -1:255 32 0] 
r 0.706366106 _26_ MAC  --- 13 message 32 [0 ffffffff 15 0] ------- [21:255 -1:255 32 0] 
r 0.706366106 _27_ MAC  --- 13 message 32 [0 ffffffff 15 0] ------- [21:255 -1:255 32 0] 
r 0.706366106 _28_ MAC  --- 13 message 32 [0 ffffffff 15 0] ------- [21:255 -1:255 32 0] 
r 0.706366106 _29_ MAC  --- 13 message 32 [0 ffffffff 15 0] ------- [21:255 -1:255 32 0] 
r 0.706391106 _20_ RTR  --- 13 message 32 [0 ffffffff 15 0] ------- [21:255 -1:255 32 0] 
r 0.706391106 _19_ RTR  --- 13 message 32 [0 ffffffff 15 0] ------- [21:255 -1:255 32 0] 
r 0.706391106 _22_ RTR  --- 13 message 32 [0 ffffffff 15 0] ------- [21:255 -1:255 32 0] 
r 0.706391106 _23_ RTR  --- 13 message 32 [0 ffffffff 15 0] ------- [21:255 -1:255 32 0] 
r 0.706391106 _24_ RTR  --- 13 message 32 [0 ffffffff 15 0] ------- [21:255 -1:255 32 0] 
r 0.706391106 _25_ RTR  --- 13 message 32 [0 ffffffff 15 0] ------- [21:255 -1:255 32 0] 
r 0.706391106 _26_ RTR  --- 13 message 32 [0 ffffffff 15 0] ------- [21:255 -1:255 32 0] 
r 0.706391106 _27_ RTR  --- 13 message 32 [0 ffffffff 15 0] ------- [21:255 -1:255 32 0] 
r 0.706391106 _28_ RTR  --- 13 message 32 [0 ffffffff 15 0] ------- [21:255 -1:255 32 0] 
r 0.706391106 _29_ RTR  --- 13 message 32 [0 ffffffff 15 0] ------- [21:255 -1:255 32 0] 
s 0.821583553 _23_ RTR  --- 14 message 32 [0 0 0 0] ------- [23:255 -1:255 32 0] 
s 0.821608553 _23_ MAC  --- 14 message 60 [0 ffffffff 17 0] ------- [23:255 -1:255 32 0] 
r 0.821816553 _22_ MAC  --- 14 message 32 [0 ffffffff 17 0] ------- [23:255 -1:255 32 0] 
r 0.821816553 _21_ MAC  --- 14 message 32 [0 ffffffff 17 0] ------- [23:255 -1:255 32 0] 
r 0.821816553 _20_ MAC  --- 14 message 32 [0 ffffffff 17 0] ------- [23:255 -1:255 32 0] 
r 0.821816553 _19_ MAC  --- 14 message 32 [0 ffffffff 17 0] ------- [23:255 -1:255 32 0] 
r 0.821816553 _24_ MAC  --- 14 message 32 [0 ffffffff 17 0] ------- [23:255 -1:255 32 0] 
r 0.821816553 _25_ MAC  --- 14 message 32 [0 ffffffff 17 0] ------- [23:255 -1:255 32 0] 
r 0.821816553 _26_ MAC  --- 14 message 32 [0 ffffffff 17 0] ------- [23:255 -1:255 32 0] 
r 0.821816553 _27_ MAC  --- 14 message 32 [0 ffffffff 17 0] ------- [23:255 -1:255 32 0] 
r 0.821816553 _28_ MAC  --- 14 message 32 [0 ffffffff 17 0] ------- [23:255 -1:255 32 0] 
r 0.821816553 _29_ MAC  --- 14 message 32 [0 ffffffff 17 0] ------- [23:255 -1:255 32 0] 
r 0.821841553 _22_ RTR  --- 14 message 32 [0 ffffffff 17 0] ------- [23:255 -1:255 32 0] 
r 0.821841553 _21_ RTR  --- 14 message 32 [0 ffffffff 17 0] ------- [23:255 -1:255 32 0] 
r 0.821841553 _20_ RTR  --- 14 message 32 [0 ffffffff 17 0] ------- [23:255 -1:255 32 0] 
r 0.821841553 _19_ RTR  --- 14 message 32 [0 ffffffff 17 0] ------- [23:255 -1:255 32 0] 
r 0.821841553 _24_ RTR  --- 14 message 32 [0 ffffffff 17 0] ------- [23:255 -1:255 32 0] 
r 0.821841553 _25_ RTR  --- 14 message 32 [0 ffffffff 17 0] ------- [23:255 -1:255 32 0] 
r 0.821841553 _26_ RTR  --- 14 message 32 [0 ffffffff 17 0] ------- [23:255 -1:255 32 0] 
r 0.821841553 _27_ RTR  --- 14 message 32 [0 ffffffff 17 0] ------- [23:255 -1:255 32 0] 
r 0.821841553 _28_ RTR  --- 14 message 32 [0 ffffffff 17 0] ------- [23:255 -1:255 32 0] 
r 0.821841553 _29_ RTR  --- 14 message 32 [0 ffffffff 17 0] ------- [23:255 -1:255 32 0] 
s 0.856341949 _17_ RTR  --- 15 message 32 [0 0 0 0] ------- [17:255 -1:255 32 0] 
s 0.856366949 _17_ MAC  --- 15 message 60 [0 ffffffff 11 0] ------- [17:255 -1:255 32 0] 
r 0.856575276 _7_ MAC  --- 15 message 32 [0 ffffffff 11 0] ------- [17:255 -1:255 32 0] 
r 0.856575723 _10_ MAC  --- 15 message 32 [0 ffffffff 11 0] ------- [17:255 -1:255 32 0] 
r 0.856600276 _7_ RTR  --- 15 message 32 [0 ffffffff 11 0] ------- [17:255 -1:255 32 0] 
r 0.856600723 _10_ RTR  --- 15 message 32 [0 ffffffff 11 0] ------- [17:255 -1:255 32 0] 
s 0.888207889 _4_ RTR  --- 16 message 32 [0 0 0 0] ------- [4:255 -1:255 32 0] 
s 0.888232889 _4_ MAC  --- 16 message 60 [0 ffffffff 4 0] ------- [4:255 -1:255 32 0] 
r 0.888441226 _15_ MAC  --- 16 message 32 [0 ffffffff 4 0] ------- [4:255 -1:255 32 0] 
r 0.888441491 _14_ MAC  --- 16 message 32 [0 ffffffff 4 0] ------- [4:255 -1:255 32 0] 
r 0.888441491 _9_ MAC  --- 16 message 32 [0 ffffffff 4 0] ------- [4:255 -1:255 32 0] 
r 0.888441499 _2_ MAC  --- 16 message 32 [0 ffffffff 4 0] ------- [4:255 -1:255 32 0] 
r 0.888441502 _16_ MAC  --- 16 message 32 [0 ffffffff 4 0] ------- [4:255 -1:255 32 0] 
r 0.888466226 _15_ RTR  --- 16 message 32 [0 ffffffff 4 0] ------- [4:255 -1:255 32 0] 
r 0.888466491 _14_ RTR  --- 16 message 32 [0 ffffffff 4 0] ------- [4:255 -1:255 32 0] 
r 0.888466491 _9_ RTR  --- 16 message 32 [0 ffffffff 4 0] ------- [4:255 -1:255 32 0] 
r 0.888466499 _2_ RTR  --- 16 message 32 [0 ffffffff 4 0] ------- [4:255 -1:255 32 0] 
r 0.888466502 _16_ RTR  --- 16 message 32 [0 ffffffff 4 0] ------- [4:255 -1:255 32 0] 
s 0.935792459 _25_ RTR  --- 17 message 32 [0 0 0 0] ------- [25:255 -1:255 32 0] 
s 0.935817459 _25_ MAC  --- 17 message 60 [0 ffffffff 19 0] ------- [25:255 -1:255 32 0] 
r 0.936025459 _24_ MAC  --- 17 message 32 [0 ffffffff 19 0] ------- [25:255 -1:255 32 0] 
r 0.936025459 _23_ MAC  --- 17 message 32 [0 ffffffff 19 0] ------- [25:255 -1:255 32 0] 
r 0.936025459 _22_ MAC  --- 17 message 32 [0 ffffffff 19 0] ------- [25:255 -1:255 32 0] 
r 0.936025459 _21_ MAC  --- 17 message 32 [0 ffffffff 19 0] ------- [25:255 -1:255 32 0] 
r 0.936025459 _20_ MAC  --- 17 message 32 [0 ffffffff 19 0] ------- [25:255 -1:255 32 0] 
r 0.936025459 _19_ MAC  --- 17 message 32 [0 ffffffff 19 0] ------- [25:255 -1:255 32 0] 
r 0.936025459 _26_ MAC  --- 17 message 32 [0 ffffffff 19 0] ------- [25:255 -1:255 32 0] 
r 0.936025459 _27_ MAC  --- 17 message 32 [0 ffffffff 19 0] ------- [25:255 -1:255 32 0] 
r 0.936025459 _28_ MAC  --- 17 message 32 [0 ffffffff 19 0] ------- [25:255 -1:255 32 0] 
r 0.936025459 _29_ MAC  --- 17 message 32 [0 ffffffff 19 0] ------- [25:255 -1:255 32 0] 
r 0.936050459 _24_ RTR  --- 17 message 32 [0 ffffffff 19 0] ------- [25:255 -1:255 32 0] 
r 0.936050459 _23_ RTR  --- 17 message 32 [0 ffffffff 19 0] ------- [25:255 -1:255 32 0] 
r 0.936050459 _22_ RTR  --- 17 message 32 [0 ffffffff 19 0] ------- [25:255 -1:255 32 0] 
r 0.936050459 _21_ RTR  --- 17 message 32 [0 ffffffff 19 0] ------- [25:255 -1:255 32 0] 
r 0.936050459 _20_ RTR  --- 17 message 32 [0 ffffffff 19 0] ------- [25:255 -1:255 32 0] 
r 0.936050459 _19_ RTR  --- 17 message 32 [0 ffffffff 19 0] ------- [25:255 -1:255 32 0] 
r 0.936050459 _26_ RTR  --- 17 message 32 [0 ffffffff 19 0] ------- [25:255 -1:255 32 0] 
r 0.936050459 _27_ RTR  --- 17 message 32 [0 ffffffff 19 0] ------- [25:255 -1:255 32 0] 
r 0.936050459 _28_ RTR  --- 17 message 32 [0 ffffffff 19 0] ------- [25:255 -1:255 32 0] 
r 0.936050459 _29_ RTR  --- 17 message 32 [0 ffffffff 19 0] ------- [25:255 -1:255 32 0] 
s 1.045135340 _24_ RTR  --- 18 message 32 [0 0 0 0] ------- [24:255 -1:255 32 0] 
s 1.045160340 _24_ MAC  --- 18 message 60 [0 ffffffff 18 0] ------- [24:255 -1:255 32 0] 
r 1.045368340 _23_ MAC  --- 18 message 32 [0 ffffffff 18 0] ------- [24:255 -1:255 32 0] 
r 1.045368340 _22_ MAC  --- 18 message 32 [0 ffffffff 18 0] ------- [24:255 -1:255 32 0] 
r 1.045368340 _21_ MAC  --- 18 message 32 [0 ffffffff 18 0] ------- [24:255 -1:255 32 0] 
r 1.045368340 _20_ MAC  --- 18 message 32 [0 ffffffff 18 0] ------- [24:255 -1:255 32 0] 
r 1.045368340 _19_ MAC  --- 18 message 32 [0 ffffffff 18 0] ------- [24:255 -1:255 32 0] 
r 1.045368340 _25_ MAC  --- 18 message 32 [0 ffffffff 18 0] ------- [24:255 -1:255 32 0] 
r 1.045368340 _26_ MAC  --- 18 message 32 [0 ffffffff 18 0] ------- [24:255 -1:255 32 0] 
r 1.045368340 _27_ MAC  --- 18 message 32 [0 ffffffff 18 0] ------- [24:255 -1:255 32 0] 
r 1.045368340 _28_ MAC  --- 18 message 32 [0 ffffffff 18 0] ------- [24:255 -1:255 32 0] 
r 1.045368340 _29_ MAC  --- 18 message 32 [0 ffffffff 18 0] ------- [24:255 -1:255 32 0] 
r 1.045393340 _23_ RTR  --- 18 message 32 [0 ffffffff 18 0] ------- [24:255 -1:255 32 0] 
r 1.045393340 _22_ RTR  --- 18 message 32 [0 ffffffff 18 0] ------- [24:255 -1:255 32 0] 
r 1.045393340 _21_ RTR  --- 18 message 32 [0 ffffffff 18 0] ------- [24:255 -1:255 32 0] 
r 1.045393340 _20_ RTR  --- 18 message 32 [0 ffffffff 18 0] ------- [24:255 -1:255 32 0] 
r 1.045393340 _19_ RTR  --- 18 message 32 [0 ffffffff 18 0] ------- [24:255 -1:255 32 0] 
r 1.045393340 _25_ RTR  --- 18 message 32 [0 ffffffff 18 0] ------- [24:255 -1:255 32 0] 
r 1.045393340 _26_ RTR  --- 18 message 32 [0 ffffffff 18 0] ------- [24:255 -1:255 32 0] 
r 1.045393340 _27_ RTR  --- 18 message 32 [0 ffffffff 18 0] ------- [24:255 -1:255 32 0] 
r 1.045393340 _28_ RTR  --- 18 message 32 [0 ffffffff 18 0] ------- [24:255 -1:255 32 0] 
r 1.045393340 _29_ RTR  --- 18 message 32 [0 ffffffff 18 0] ------- [24:255 -1:255 32 0] 
s 1.115825207 _1_ RTR  --- 19 message 32 [0 0 0 0] ------- [1:255 -1:255 32 0] 
s 1.115850207 _1_ MAC  --- 19 message 60 [0 ffffffff 1 0] ------- [1:255 -1:255 32 0] 
r 1.116058991 _14_ MAC  --- 19 message 32 [0 ffffffff 1 0] ------- [1:255 -1:255 32 0] 
r 1.116058991 _9_ MAC  --- 19 message 32 [0 ffffffff 1 0] ------- [1:255 -1:255 32 0] 
r 1.116083991 _14_ RTR  --- 19 message 32 [0 ffffffff 1 0] ------- [1:255 -1:255 32 0] 
r 1.116083991 _9_ RTR  --- 19 message 32 [0 ffffffff 1 0] ------- [1:255 -1:255 32 0] 
s 1.277732032 _9_ RTR  --- 20 message 32 [0 0 0 0] ------- [9:255 -1:255 32 0] 
s 1.277757032 _9_ MAC  --- 20 message 60 [0 ffffffff 9 0] ------- [9:255 -1:255 32 0] 
r 1.277965032 _14_ MAC  --- 20 message 32 [0 ffffffff 9 0] ------- [9:255 -1:255 32 0] 
r 1.277965634 _4_ MAC  --- 20 message 32 [0 ffffffff 9 0] ------- [9:255 -1:255 32 0] 
r 1.277965816 _1_ MAC  --- 20 message 32 [0 ffffffff 9 0] ------- [9:255 -1:255 32 0] 
r 1.277965970 _15_ MAC  --- 20 message 32 [0 ffffffff 9 0] ------- [9:255 -1:255 32 0] 
r 1.277990032 _14_ RTR  --- 20 message 32 [0 ffffffff 9 0] ------- [9:255 -1:255 32 0] 
r 1.277990634 _4_ RTR  --- 20 message 32 [0 ffffffff 9 0] ------- [9:255 -1:255 32 0] 
r 1.277990816 _1_ RTR  --- 20 message 32 [0 ffffffff 9 0] ------- [9:255 -1:255 32 0] 
r 1.277990970 _15_ RTR  --- 20 message 32 [0 ffffffff 9 0] ------- [9:255 -1:255 32 0] 
s 1.287092216 _14_ RTR  --- 21 message 32 [0 0 0 0] ------- [14:255 -1:255 32 0] 
s 1.287117216 _14_ MAC  --- 21 message 60 [0 ffffffff e 0] ------- [14:255 -1:255 32 0] 
r 1.287325216 _9_ MAC  --- 21 message 32 [0 ffffffff e 0] ------- [14:255 -1:255 32 0] 
r 1.287325819 _4_ MAC  --- 21 message 32 [0 ffffffff e 0] ------- [14:255 -1:255 32 0] 
r 1.287326001 _1_ MAC  --- 21 message 32 [0 ffffffff e 0] ------- [14:255 -1:255 32 0] 
r 1.287326154 _15_ MAC  --- 21 message 32 [0 ffffffff e 0] ------- [14:255 -1:255 32 0] 
r 1.287350216 _9_ RTR  --- 21 message 32 [0 ffffffff e 0] ------- [14:255 -1:255 32 0] 
r 1.287350819 _4_ RTR  --- 21 message 32 [0 ffffffff e 0] ------- [14:255 -1:255 32 0] 
r 1.287351001 _1_ RTR  --- 21 message 32 [0 ffffffff e 0] ------- [14:255 -1:255 32 0] 
r 1.287351154 _15_ RTR  --- 21 message 32 [0 ffffffff e 0] ------- [14:255 -1:255 32 0] 
s 1.388266138 _26_ RTR  --- 22 message 32 [0 0 0 0] ------- [26:255 -1:255 32 0] 
s 1.388291138 _26_ MAC  --- 22 message 60 [0 ffffffff 1a 0] ------- [26:255 -1:255 32 0] 
r 1.388499138 _25_ MAC  --- 22 message 32 [0 ffffffff 1a 0] ------- [26:255 -1:255 32 0] 
r 1.388499138 _24_ MAC  --- 22 message 32 [0 ffffffff 1a 0] ------- [26:255 -1:255 32 0] 
r 1.388499138 _23_ MAC  --- 22 message 32 [0 ffffffff 1a 0] ------- [26:255 -1:255 32 0] 
r 1.388499138 _22_ MAC  --- 22 message 32 [0 ffffffff 1a 0] ------- [26:255 -1:255 32 0] 
r 1.388499138 _21_ MAC  --- 22 message 32 [0 ffffffff 1a 0] ------- [26:255 -1:255 32 0] 
r 1.388499138 _20_ MAC  --- 22 message 32 [0 ffffffff 1a 0] ------- [26:255 -1:255 32 0] 
r 1.388499138 _19_ MAC  --- 22 message 32 [0 ffffffff 1a 0] ------- [26:255 -1:255 32 0] 
r 1.388499138 _27_ MAC  --- 22 message 32 [0 ffffffff 1a 0] ------- [26:255 -1:255 32 0] 
r 1.388499138 _28_ MAC  --- 22 message 32 [0 ffffffff 1a 0] ------- [26:255 -1:255 32 0] 
r 1.388499138 _29_ MAC  --- 22 message 32 [0 ffffffff 1a 0] ------- [26:255 -1:255 32 0] 
r 1.388524138 _25_ RTR  --- 22 message 32 [0 ffffffff 1a 0] ------- [26:255 -1:255 32 0] 
r 1.388524138 _24_ RTR  --- 22 message 32 [0 ffffffff 1a 0] ------- [26:255 -1:255 32 0] 
r 1.388524138 _23_ RTR  --- 22 message 32 [0 ffffffff 1a 0] ------- [26:255 -1:255 32 0] 
r 1.388524138 _22_ RTR  --- 22 message 32 [0 ffffffff 1a 0] ------- [26:255 -1:255 32 0] 
r 1.388524138 _21_ RTR  --- 22 message 32 [0 ffffffff 1a 0] ------- [26:255 -1:255 32 0] 
r 1.388524138 _20_ RTR  --- 22 message 32 [0 ffffffff 1a 0] ------- [26:255 -1:255 32 0] 
r 1.388524138 _19_ RTR  --- 22 message 32 [0 ffffffff 1a 0] ------- [26:255 -1:255 32 0] 
r 1.388524138 _27_ RTR  --- 22 message 32 [0 ffffffff 1a 0] ------- [26:255 -1:255 32 0] 
r 1.388524138 _28_ RTR  --- 22 message 32 [0 ffffffff 1a 0] ------- [26:255 -1:255 32 0] 
r 1.388524138 _29_ RTR  --- 22 message 32 [0 ffffffff 1a 0] ------- [26:255 -1:255 32 0] 
s 1.601528255 _5_ RTR  --- 23 message 32 [0 0 0 0] ------- [5:255 -1:255 32 0] 
s 1.601553255 _5_ MAC  --- 23 message 60 [0 ffffffff 5 0] ------- [5:255 -1:255 32 0] 
r 1.601762151 _2_ MAC  --- 23 message 32 [0 ffffffff 5 0] ------- [5:255 -1:255 32 0] 
r 1.601762198 _16_ MAC  --- 23 message 32 [0 ffffffff 5 0] ------- [5:255 -1:255 32 0] 
r 1.601787151 _2_ RTR  --- 23 message 32 [0 ffffffff 5 0] ------- [5:255 -1:255 32 0] 
r 1.601787198 _16_ RTR  --- 23 message 32 [0 ffffffff 5 0] ------- [5:255 -1:255 32 0] 
s 1.622115426 _20_ RTR  --- 24 message 32 [0 0 0 0] ------- [20:255 -1:255 32 0] 
s 1.622140426 _20_ MAC  --- 24 message 60 [0 ffffffff 14 0] ------- [20:255 -1:255 32 0] 
r 1.622348426 _19_ MAC  --- 24 message 32 [0 ffffffff 14 0] ------- [20:255 -1:255 32 0] 
r 1.622348426 _21_ MAC  --- 24 message 32 [0 ffffffff 14 0] ------- [20:255 -1:255 32 0] 
r 1.622348426 _22_ MAC  --- 24 message 32 [0 ffffffff 14 0] ------- [20:255 -1:255 32 0] 
r 1.622348426 _23_ MAC  --- 24 message 32 [0 ffffffff 14 0] ------- [20:255 -1:255 32 0] 
r 1.622348426 _24_ MAC  --- 24 message 32 [0 ffffffff 14 0] ------- [20:255 -1:255 32 0] 
r 1.622348426 _25_ MAC  --- 24 message 32 [0 ffffffff 14 0] ------- [20:255 -1:255 32 0] 
r 1.622348426 _26_ MAC  --- 24 message 32 [0 ffffffff 14 0] ------- [20:255 -1:255 32 0] 
r 1.622348426 _27_ MAC  --- 24 message 32 [0 ffffffff 14 0] ------- [20:255 -1:255 32 0] 
r 1.622348426 _28_ MAC  --- 24 message 32 [0 ffffffff 14 0] ------- [20:255 -1:255 32 0] 
r 1.622348426 _29_ MAC  --- 24 message 32 [0 ffffffff 14 0] ------- [20:255 -1:255 32 0] 
r 1.622373426 _19_ RTR  --- 24 message 32 [0 ffffffff 14 0] ------- [20:255 -1:255 32 0] 
r 1.622373426 _21_ RTR  --- 24 message 32 [0 ffffffff 14 0] ------- [20:255 -1:255 32 0] 
r 1.622373426 _22_ RTR  --- 24 message 32 [0 ffffffff 14 0] ------- [20:255 -1:255 32 0] 
r 1.622373426 _23_ RTR  --- 24 message 32 [0 ffffffff 14 0] ------- [20:255 -1:255 32 0] 
r 1.622373426 _24_ RTR  --- 24 message 32 [0 ffffffff 14 0] ------- [20:255 -1:255 32 0] 
r 1.622373426 _25_ RTR  --- 24 message 32 [0 ffffffff 14 0] ------- [20:255 -1:255 32 0] 
r 1.622373426 _26_ RTR  --- 24 message 32 [0 ffffffff 14 0] ------- [20:255 -1:255 32 0] 
r 1.622373426 _27_ RTR  --- 24 message 32 [0 ffffffff 14 0] ------- [20:255 -1:255 32 0] 
r 1.622373426 _28_ RTR  --- 24 message 32 [0 ffffffff 14 0] ------- [20:255 -1:255 32 0] 
r 1.622373426 _29_ RTR  --- 24 message 32 [0 ffffffff 14 0] ------- [20:255 -1:255 32 0] 
s 1.640504458 _7_ RTR  --- 25 message 32 [0 0 0 0] ------- [7:255 -1:255 32 0] 
s 1.640529458 _7_ MAC  --- 25 message 60 [0 ffffffff 7 0] ------- [7:255 -1:255 32 0] 
r 1.640737785 _17_ MAC  --- 25 message 32 [0 ffffffff 7 0] ------- [7:255 -1:255 32 0] 
r 1.640762785 _17_ RTR  --- 25 message 32 [0 ffffffff 7 0] ------- [7:255 -1:255 32 0] 
s 1.677854543 _11_ RTR  --- 26 message 32 [0 0 0 0] ------- [11:255 -1:255 32 0] 
s 1.677879543 _11_ MAC  --- 26 message 60 [0 ffffffff b 0] ------- [11:255 -1:255 32 0] 
r 1.678088119 _12_ MAC  --- 26 message 32 [0 ffffffff b 0] ------- [11:255 -1:255 32 0] 
r 1.678113119 _12_ RTR  --- 26 message 32 [0 ffffffff b 0] ------- [11:255 -1:255 32 0] 
s 1.679810378 _28_ RTR  --- 27 message 32 [0 0 0 0] ------- [28:255 -1:255 32 0] 
s 1.679835378 _28_ MAC  --- 27 message 60 [0 ffffffff 1c 0] ------- [28:255 -1:255 32 0] 
r 1.680043378 _27_ MAC  --- 27 message 32 [0 ffffffff 1c 0] ------- [28:255 -1:255 32 0] 
r 1.680043378 _26_ MAC  --- 27 message 32 [0 ffffffff 1c 0] ------- [28:255 -1:255 32 0] 
r 1.680043378 _25_ MAC  --- 27 message 32 [0 ffffffff 1c 0] ------- [28:255 -1:255 32 0] 
r 1.680043378 _24_ MAC  --- 27 message 32 [0 ffffffff 1c 0] ------- [28:255 -1:255 32 0] 
r 1.680043378 _23_ MAC  --- 27 message 32 [0 ffffffff 1c 0] ------- [28:255 -1:255 32 0] 
r 1.680043378 _22_ MAC  --- 27 message 32 [0 ffffffff 1c 0] ------- [28:255 -1:255 32 0] 
r 1.680043378 _21_ MAC  --- 27 message 32 [0 ffffffff 1c 0] ------- [28:255 -1:255 32 0] 
r 1.680043378 _20_ MAC  --- 27 message 32 [0 ffffffff 1c 0] ------- [28:255 -1:255 32 0] 
r 1.680043378 _19_ MAC  --- 27 message 32 [0 ffffffff 1c 0] ------- [28:255 -1:255 32 0] 
r 1.680043378 _29_ MAC  --- 27 message 32 [0 ffffffff 1c 0] ------- [28:255 -1:255 32 0] 
r 1.680068378 _27_ RTR  --- 27 message 32 [0 ffffffff 1c 0] ------- [28:255 -1:255 32 0] 
r 1.680068378 _26_ RTR  --- 27 message 32 [0 ffffffff 1c 0] ------- [28:255 -1:255 32 0] 
r 1.680068378 _25_ RTR  --- 27 message 32 [0 ffffffff 1c 0] ------- [28:255 -1:255 32 0] 
r 1.680068378 _24_ RTR  --- 27 message 32 [0 ffffffff 1c 0] ------- [28:255 -1:255 32 0] 
r 1.680068378 _23_ RTR  --- 27 message 32 [0 ffffffff 1c 0] ------- [28:255 -1:255 32 0] 
r 1.680068378 _22_ RTR  --- 27 message 32 [0 ffffffff 1c 0] ------- [28:255 -1:255 32 0] 
r 1.680068378 _21_ RTR  --- 27 message 32 [0 ffffffff 1c 0] ------- [28:255 -1:255 32 0] 
r 1.680068378 _20_ RTR  --- 27 message 32 [0 ffffffff 1c 0] ------- [28:255 -1:255 32 0] 
r 1.680068378 _19_ RTR  --- 27 message 32 [0 ffffffff 1c 0] ------- [28:255 -1:255 32 0] 
r 1.680068378 _29_ RTR  --- 27 message 32 [0 ffffffff 1c 0] ------- [28:255 -1:255 32 0] 
s 1.722767515 _16_ RTR  --- 28 message 32 [0 0 0 0] ------- [16:255 -1:255 32 0] 
s 1.722792515 _16_ MAC  --- 28 message 60 [0 ffffffff 10 0] ------- [16:255 -1:255 32 0] 
r 1.723000574 _2_ MAC  --- 28 message 32 [0 ffffffff 10 0] ------- [16:255 -1:255 32 0] 
r 1.723001021 _15_ MAC  --- 28 message 32 [0 ffffffff 10 0] ------- [16:255 -1:255 32 0] 
r 1.723001129 _4_ MAC  --- 28 message 32 [0 ffffffff 10 0] ------- [16:255 -1:255 32 0] 
r 1.723001458 _5_ MAC  --- 28 message 32 [0 ffffffff 10 0] ------- [16:255 -1:255 32 0] 
r 1.723025574 _2_ RTR  --- 28 message 32 [0 ffffffff 10 0] ------- [16:255 -1:255 32 0] 